 Q-Chem 5.3, Q-Chem, Inc., Pleasanton, CA (2020)
 Q-Chem 5.3.2 for Intel X86 EM64T Linux

User input:
--------------------------------------------------------------
$molecule
0 1
Xe   -0.0000000   -0.0000000   -0.0000000
F    1.3577283   -1.3577283    0.0000000
F    1.3577283    1.3577283    0.0000000
F   -1.3577283   -1.3577283   -0.0000000
F   -1.3577283    1.3577283   -0.0000000
$end

$rem
BASIS  =  3-21G
GUI  =  2
JOB_TYPE  =  Optimization
METHOD  =  B3LYP
$end

--------------------------------------------------------------

   10   -7600.2347259259      4.58e-09  Convergence criterion met
 Total energy in the final basis set =    -7600.2347259259
    8   -7600.2469559114      4.75e-10  Convergence criterion met
 Total energy in the final basis set =    -7600.2469559114
    8   -7600.2670102208      7.09e-09  Convergence criterion met
 Total energy in the final basis set =    -7600.2670102208
    9   -7600.2711448261      9.25e-10  Convergence criterion met
 Total energy in the final basis set =    -7600.2711448261
    9   -7600.2711582218      1.11e-09  Convergence criterion met
 Total energy in the final basis set =    -7600.2711582218
 Final energy is   -7600.27115822185
 **  OPTIMIZATION CONVERGED  **
 Total job time:  9.83s(wall), 94.17s(cpu)
        *  Thank you very much for using Q-Chem.  Have a nice day.  *
 Q-Chem 5.3, Q-Chem, Inc., Pleasanton, CA (2020)
 Q-Chem 5.3.2 for Intel X86 EM64T Linux

User input:
--------------------------------------------------------------

$molecule
read
$end

$rem
BASIS  =  3-21G
GUI  =  2
JOB_TYPE  =  Frequency
VIBMAN_PRINT = 6
METHOD  =  B3LYP
SCF_GUESS = READ
$end

--------------------------------------------------------------

             Standard Nuclear Orientation (Angstroms)
    I     Atom           X                Y                Z
 ----------------------------------------------------------------
    1      Xe      0.0000000000     0.0000000000     0.0000000000
    2      F       2.0873459243     0.0000000000     0.0000000000
    3      F       0.0000000000     2.0873459243     0.0000000000
    4      F       0.0000000000    -2.0873459243     0.0000000000
    5      F      -2.0873459243     0.0000000000     0.0000000000
 ----------------------------------------------------------------

    2   -7600.2711582448      2.06e-09  Convergence criterion met
 Total energy in the final basis set =    -7600.2711582448

             Orbital Energies (a.u.) and Symmetries
 --------------------------------------------------------------

 Alpha MOs, Restricted
 -- Occupied --
******* -184.08 -172.55 -172.55 -172.55  -38.17  -33.17  -33.17
  1 A1g   2 A1g   1 Eu    1 Eu    1 A2u   3 A1g   2 Eu    2 Eu
-33.166 -24.863 -24.862 -24.856 -24.856 -24.855 -24.515 -24.515
  2 A2u   1 B1g   1 B2g   1 Eg    1 Eg    4 A1g   3 Eu    3 Eu
-24.515 -24.514  -7.183  -5.406  -5.406  -5.388  -2.652  -2.648
  5 A1g   2 B1g   6 A1g   4 Eu    4 Eu    3 A2u   3 B1g   2 B2g
 -2.634  -2.634  -2.632  -1.146  -1.118  -1.118  -1.104  -0.863
  2 Eg    2 Eg    7 A1g   8 A1g   5 Eu    5 Eu    4 B1g   9 A1g
 -0.535  -0.535  -0.503  -0.371  -0.361  -0.358  -0.358  -0.356
  6 Eu    6 Eu    4 A2u   5 B1g   3 B2g   7 Eu    7 Eu    3 Eg
 -0.356  -0.355  -0.347  -0.324  -0.316
  3 Eg    1 B2u   1 A2g   5 A2u  10 A1g

 Beta MOs, Restricted
 -- Occupied --
******* -184.08 -172.55 -172.55 -172.55  -38.17  -33.17  -33.17
  1 A1g   2 A1g   1 Eu    1 Eu    1 A2u   3 A1g   2 Eu    2 Eu
-33.166 -24.863 -24.862 -24.856 -24.856 -24.855 -24.515 -24.515
  2 A2u   1 B1g   1 B2g   1 Eg    1 Eg    4 A1g   3 Eu    3 Eu
-24.515 -24.514  -7.183  -5.406  -5.406  -5.388  -2.652  -2.648
  5 A1g   2 B1g   6 A1g   4 Eu    4 Eu    3 A2u   3 B1g   2 B2g
 -2.634  -2.634  -2.632  -1.146  -1.118  -1.118  -1.104  -0.863
  2 Eg    2 Eg    7 A1g   8 A1g   5 Eu    5 Eu    4 B1g   9 A1g
 -0.535  -0.535  -0.503  -0.371  -0.361  -0.358  -0.358  -0.356
  6 Eu    6 Eu    4 A2u   5 B1g   3 B2g   7 Eu    7 Eu    3 Eg
 -0.356  -0.355  -0.347  -0.324  -0.316
  3 Eg    1 B2u   1 A2g   5 A2u  10 A1g

          Ground-State Mulliken Net Atomic Charges

     Atom                 Charge (a.u.)
  ----------------------------------------
      1 Xe                    1.580978
      2 F                    -0.395244
      3 F                    -0.395244
      4 F                    -0.395244
      5 F                    -0.395244
  ----------------------------------------
  Sum of atomic charges =     0.000000

                    Cartesian Multipole Moments
 -----------------------------------------------------------------
    Charge (ESU x 10^10)
                -0.0000
    Dipole Moment (Debye)
         X      -0.0000      Y       0.0000      Z       0.0000
       Tot       0.0000
    Quadrupole Moments (Debye-Ang)
        XX     -55.5928     XY      -0.0000     YY     -55.5928
        XZ       0.0000     YZ      -0.0000     ZZ     -42.3748

 Frequency:       105.02                 141.83                 141.83
 Force Cnst:      0.1235                 0.2522                 0.2522
 Red. Mass:      18.9984                21.2768                21.2768
 IR Intens:        0.000                  5.164                  5.164
 Frequency:       187.46                 204.65                 479.65
 Force Cnst:      0.3934                 0.6823                 2.5752
 Red. Mass:      18.9984                27.6495                18.9984
 IR Intens:        0.000                 46.607                  0.000
 Frequency:       486.82                 577.03                 577.03
 Force Cnst:      2.6528                 4.6928                 4.6928
 Red. Mass:      18.9984                23.9215                23.9215
 IR Intens:        0.000                 94.652                 94.652

 STANDARD THERMODYNAMIC QUANTITIES AT   298.15 K  AND     1.00 ATM

   This Molecule has  0 Imaginary Frequencies
   Zero point vibrational energy:        4.148 kcal/mol

   Atom    1 Element Xe Has Mass  131.90420
   Atom    2 Element F  Has Mass   18.99840
   Atom    3 Element F  Has Mass   18.99840
   Atom    4 Element F  Has Mass   18.99840
   Atom    5 Element F  Has Mass   18.99840
   Molecular Mass:   207.897800 amu
   Principal axes and moments of inertia in amu*Bohr^2:
                             1           2           3
    Eigenvalues --      591.19890   591.19890  1182.39779
          X               1.00000     0.00000     0.00000
          Y               0.00000     1.00000     0.00000
          Z               0.00000     0.00000     1.00000
   Rotational Symmetry Number is   8
   The Molecule is a Symmetric Top
   Translational Enthalpy:        0.889 kcal/mol
   Rotational Enthalpy:           0.889 kcal/mol
   Vibrational Enthalpy:          6.654 kcal/mol
   gas constant (RT):             0.592 kcal/mol
   Translational Entropy:        41.899  cal/mol.K
   Rotational Entropy:           23.383  cal/mol.K
   Vibrational Entropy:          15.645  cal/mol.K

   Total Enthalpy:                9.024 kcal/mol
   Total Entropy:                80.928  cal/mol.K

 Total job time:  5.14s(wall), 49.46s(cpu)
        *  Thank you very much for using Q-Chem.  Have a nice day.  *
